   2   16
1 1
    12.065165000000006    -0.000000000000000    -0.000000000000000
    -0.000000000000000    12.065165000000004    -0.000000000000000
    -0.000000000000000    -0.000000000000000    12.065165000000004
1 2
    -5.806100000000001    -0.000000000000000    -0.000000000000000
    -0.000000000000000     0.402342000000000    -0.000000000000000
    -0.000000000000000    -0.000000000000000     0.402342000000000
1 3
     0.402342000000000    -0.000000000000000    -0.000000000000000
    -0.000000000000000    -5.806100000000000    -0.000000000000000
    -0.000000000000000    -0.000000000000000     0.402342000000000
1 4
    -0.676651000000000    -0.000000000000000    -0.000000000000000
    -0.000000000000000    -0.676651000000000    -0.000000000000000
    -0.000000000000000    -0.000000000000000     0.013278000000000
1 5
     0.402342000000000    -0.000000000000000    -0.000000000000000
    -0.000000000000000     0.402342000000000    -0.000000000000000
    -0.000000000000000    -0.000000000000000    -5.806100000000000
1 6
    -0.676651000000000    -0.000000000000000    -0.000000000000000
    -0.000000000000000     0.013278000000000    -0.000000000000000
    -0.000000000000000    -0.000000000000000    -0.676651000000000
1 7
     0.013278000000000    -0.000000000000000    -0.000000000000000
    -0.000000000000000    -0.676651000000000    -0.000000000000000
    -0.000000000000000    -0.000000000000000    -0.676651000000000
1 8
    -0.407391000000000    -0.000000000000000    -0.000000000000000
    -0.000000000000000    -0.407391000000000    -0.000000000000000
    -0.000000000000000    -0.000000000000000    -0.407391000000000
1 9
    -0.664541500000000    -0.332266000000000    -0.332266000000000
    -0.332266000000000    -0.664541500000000    -0.332266000000000
    -0.332266000000000    -0.332266000000000    -0.664541500000000
1 10
    -0.664541500000000     0.332266000000000     0.332266000000000
     0.332266000000000    -0.664541500000000    -0.332266000000000
     0.332266000000000    -0.332266000000000    -0.664541500000000
1 11
    -0.664541500000000     0.332266000000000    -0.332266000000000
     0.332266000000000    -0.664541500000000     0.332266000000000
    -0.332266000000000     0.332266000000000    -0.664541500000000
1 12
    -0.664541500000000    -0.332266000000000     0.332266000000000
    -0.332266000000000    -0.664541500000000     0.332266000000000
     0.332266000000000     0.332266000000000    -0.664541500000000
1 13
    -0.664541500000000    -0.332266000000000     0.332266000000000
    -0.332266000000000    -0.664541500000000     0.332266000000000
     0.332266000000000     0.332266000000000    -0.664541500000000
1 14
    -0.664541500000000     0.332266000000000    -0.332266000000000
     0.332266000000000    -0.664541500000000     0.332266000000000
    -0.332266000000000     0.332266000000000    -0.664541500000000
1 15
    -0.664541500000000     0.332266000000000     0.332266000000000
     0.332266000000000    -0.664541500000000    -0.332266000000000
     0.332266000000000    -0.332266000000000    -0.664541500000000
1 16
    -0.664541500000000    -0.332266000000000    -0.332266000000000
    -0.332266000000000    -0.664541500000000    -0.332266000000000
    -0.332266000000000    -0.332266000000000    -0.664541500000000
9 1
    -0.664541500000000    -0.332266000000000    -0.332266000000000
    -0.332266000000000    -0.664541500000000    -0.332266000000000
    -0.332266000000000    -0.332266000000000    -0.664541500000000
9 2
    -0.664541500000000     0.332266000000000     0.332266000000000
     0.332266000000000    -0.664541500000000    -0.332266000000000
     0.332266000000000    -0.332266000000000    -0.664541500000000
9 3
    -0.664541500000000     0.332266000000000    -0.332266000000000
     0.332266000000000    -0.664541500000000     0.332266000000000
    -0.332266000000000     0.332266000000000    -0.664541500000000
9 4
    -0.664541500000000    -0.332266000000000     0.332266000000000
    -0.332266000000000    -0.664541500000000     0.332266000000000
     0.332266000000000     0.332266000000000    -0.664541500000000
9 5
    -0.664541500000000    -0.332266000000000     0.332266000000000
    -0.332266000000000    -0.664541500000000     0.332266000000000
     0.332266000000000     0.332266000000000    -0.664541500000000
9 6
    -0.664541500000000     0.332266000000000    -0.332266000000000
     0.332266000000000    -0.664541500000000     0.332266000000000
    -0.332266000000000     0.332266000000000    -0.664541500000000
9 7
    -0.664541500000000     0.332266000000000     0.332266000000000
     0.332266000000000    -0.664541500000000    -0.332266000000000
     0.332266000000000    -0.332266000000000    -0.664541500000000
9 8
    -0.664541500000000    -0.332266000000000    -0.332266000000000
    -0.332266000000000    -0.664541500000000    -0.332266000000000
    -0.332266000000000    -0.332266000000000    -0.664541500000000
9 9
    12.065165000000006     0.000000000000000     0.000000000000000
     0.000000000000000    12.065165000000004     0.000000000000000
     0.000000000000000     0.000000000000000    12.065165000000004
9 10
    -5.806100000000001     0.000000000000000     0.000000000000000
     0.000000000000000     0.402342000000000     0.000000000000000
     0.000000000000000     0.000000000000000     0.402342000000000
9 11
     0.402342000000000     0.000000000000000     0.000000000000000
     0.000000000000000    -5.806100000000000     0.000000000000000
     0.000000000000000     0.000000000000000     0.402342000000000
9 12
    -0.676651000000000     0.000000000000000     0.000000000000000
     0.000000000000000    -0.676651000000000     0.000000000000000
     0.000000000000000     0.000000000000000     0.013278000000000
9 13
     0.402342000000000     0.000000000000000     0.000000000000000
     0.000000000000000     0.402342000000000     0.000000000000000
     0.000000000000000     0.000000000000000    -5.806100000000000
9 14
    -0.676651000000000     0.000000000000000     0.000000000000000
     0.000000000000000     0.013278000000000     0.000000000000000
     0.000000000000000     0.000000000000000    -0.676651000000000
9 15
     0.013278000000000     0.000000000000000     0.000000000000000
     0.000000000000000    -0.676651000000000     0.000000000000000
     0.000000000000000     0.000000000000000    -0.676651000000000
9 16
    -0.407391000000000     0.000000000000000     0.000000000000000
     0.000000000000000    -0.407391000000000     0.000000000000000
     0.000000000000000     0.000000000000000    -0.407391000000000